<LesHouchesEvents version="1.0">
<!--
Output from the JHUGenerator v7.5.4 described in arXiv:1001.3396 , arXiv:1208.4018 , arXiv:1309.4819 , arXiv:1606.03107 , arXiv:2002.09888 , arXiv:2104.04277, arXiv:2109.13363
   
   Command line: ./JHUGen LHAPDF=NNPDF31_nnlo_as_0118_mc_hessian_pdfas/NNPDF31_nnlo_as_0118_mc_hessian_pdfas.info Collider=1 ColliderEnergy=13 PChannel=1 Process=1 MReso=6.927 GaReso=0.122 ctauReso=0 MZ=3.09689 GaZ=0.00009 zprime_qq_left=1,0 zprime_qq_right=1,0 zprime_zz_1=1,0 DecayMode1=-9 DecayMode2=-9 daz_Lep_left=1.53762,0 daz_Lep_right=0.53762,0 Interf=1 Unweighted=1 WidthScheme=4 FacScheme=12 MuFacBounds=5,50 ignoreRunningWidthResonanceCheck=true VegasNc0=1000000 VegasNc1=1000000 VegasNc2=1000 Seed=0 DataFile=spin1P_BW2
   
   Input Parameter:
    Collider: P-P, sqrt(s)=13000.00
    Resonance: spin=1, mass=   6.93 width=   0.12200
    DecayMode1:-9  DecayMode2:-9
    Z boson: mass= 3.097, width=0.0001
    Random seed:    66023253
    To reproduce results using this seed, JHUGen should be compiled with the same compiler:
      GNU Fortran (GCC) 10.3.0
    
    OffXVV: TTT
    WidthScheme:   4
    PChannel: 1
    LHAPDF set NNPDF31_nnlo_as_0118_mc_hessian_pdfas/NNPDF31_nnlo_as_0118_mc_hessian_pdfas.info, member=  0
    Unweighted: T
    Interference: T
    Intermediate off-shell photons: F
    
    Spin-1-VV couplings: 
      zprime_qq_left =  0.10000000E+01  0.00000000E+00i
      zprime_qq_right=  0.10000000E+01  0.00000000E+00i
      zprime_zz_1=  0.10000000E+01  0.00000000E+00i
      zprime_zz_2=  0.00000000E+00  0.00000000E+00i
    
    LHE output: spin1P_BW2.lhe
    Histogram output: spin1P_BW2.dat
    Log file: spin1P_BW2.log
    
-->
<init>
2212 2212   6500.0000000000000000    6500.0000000000000000 0 0  325300  325300  3  1
 1.3978477E+16  9.8515900E+12  1.0000000E+00   1
</init>
<event>
 9   1   1.0000000E+00   2.1184119E+01   7.8125000E-03   2.3765309E-01
       -2   -1    0    0    0  502  0.00000000000E+00  0.00000000000E+00  7.43428749210E-03  7.43428749210E-03  0.00000000000E+00  0.00000000000E+00  1.
        2   -1    0    0  502    0  0.00000000000E+00  0.00000000000E+00 -1.72007335119E+03  1.72007335119E+03  0.00000000000E+00  0.00000000000E+00  1.
       32    2    1    2    0    0  0.00000000000E+00  0.00000000000E+00 -1.72006591690E+03  1.72008078547E+03  7.15192835538E+00  0.00000000000E+00  1.
       23    2    3    3    0    0 -1.08445500557E+00 -3.99602961321E-01 -1.18812058147E+03  1.18812518000E+03  3.09701684358E+00  0.00000000000E+00  1.
       23    2    3    3    0    0  1.08445500557E+00  3.99602961321E-01 -5.31945335429E+02  5.31955605473E+02  3.09686694035E+00  0.00000000000E+00  1.
       13    1    4    4    0    0 -5.10808356398E-01  5.03927795093E-01 -6.44011665616E+01  6.44052504609E+01  1.05659998773E-01  0.00000000000E+00  1.
      -13    1    4    4    0    0 -5.73646649170E-01 -9.03530756415E-01 -1.12371941491E+03  1.12371992954E+03  1.05659996922E-01  0.00000000000E+00  1.
       13    1    5    5    0    0 -9.14338872129E-01 -5.58068877052E-01 -1.93932322021E+02  1.93935309176E+02  1.05660000124E-01  0.00000000000E+00  1.
      -13    1    5    5    0    0  1.99879387770E+00  9.57671838373E-01 -3.38013013407E+02  3.38020296298E+02  1.05659999746E-01  0.00000000000E+00  1.
</event>
<event>
 9   1   1.0000000E+00   1.3992383E+01   7.8125000E-03   2.3998455E-01
       -1   -1    0    0    0  502  0.00000000000E+00  0.00000000000E+00  9.04803856347E-02  9.04803856347E-02  0.00000000000E+00  0.00000000000E+00  1.
        1   -1    0    0  502    0  0.00000000000E+00  0.00000000000E+00 -1.33848776857E+02  1.33848776857E+02  0.00000000000E+00  0.00000000000E+00  1.
       32    2    1    2    0    0  0.00000000000E+00  1.11022302463E-16 -1.33758296471E+02  1.33939257243E+02  6.96008303018E+00  0.00000000000E+00  1.
       23    2    3    3    0    0  1.25089213590E+00 -2.77418837648E-01 -8.48096953120E+01  8.48759613915E+01  3.09882411114E+00  0.00000000000E+00  1.
       23    2    3    3    0    0 -1.25089213590E+00  2.77418837648E-01 -4.89486011593E+01  4.90632958511E+01  3.09834665090E+00  0.00000000000E+00  1.
       13    1    5    5    0    0 -1.39419408664E-01 -6.01149011803E-01 -2.05682534655E+00  2.15000289482E+00  1.05660000005E-01  0.00000000000E+00  1.
      -13    1    4    4    0    0  1.54489945616E+00  7.05221896266E-01 -7.34131488723E+01  7.34328648742E+01  1.05660000004E-01  0.00000000000E+00  1.
       13    1    4    4    0    0 -2.94007320254E-01 -9.82640733914E-01 -1.13965464397E+01  1.14430965173E+01  1.05660000000E-01  0.00000000000E+00  1.
      -13    1    5    5    0    0 -1.11147272724E+00  8.78567849451E-01 -4.68917758128E+01  4.69132929563E+01  1.05659999995E-01  0.00000000000E+00  1.
</event>
<event>
 9   1   1.0000000E+00   3.9850872E+01   7.8125000E-03   2.2426232E-01
       -3   -1    0    0    0  502  0.00000000000E+00  0.00000000000E+00  3.21241020884E+00  3.21241020884E+00  0.00000000000E+00  0.00000000000E+00  1.
        3   -1    0    0  502    0  0.00000000000E+00  0.00000000000E+00 -5.56578919378E+00  5.56578919378E+00  0.00000000000E+00  0.00000000000E+00  1.
       32    2    1    2    0    0  2.22044604925E-16  4.44089209850E-16 -2.35337898494E+00  8.77819940262E+00  8.45685474071E+00  0.00000000000E+00  1.
       23    2    3    3    0    0 -1.12699258055E+00  3.55293297462E-01  1.54409171831E+00  3.65991876328E+00  3.10071612946E+00  0.00000000000E+00  1.
       23    2    3    3    0    0  1.12699258055E+00 -3.55293297462E-01 -3.89747070324E+00  5.11828063934E+00  3.10002793802E+00  0.00000000000E+00  1.
       13    1    5    5    0    0  1.47778746504E+00  1.06791219990E+00 -1.86650057405E+00  2.61137524823E+00  1.05660000000E-01  0.00000000000E+00  1.
      -13    1    4    4    0    0 -9.86355153180E-01 -1.07823736317E+00 -1.03637926137E-01  1.46880807285E+00  1.05660000000E-01  0.00000000000E+00  1.
       13    1    4    4    0    0 -1.40637427369E-01  1.43353066063E+00  1.64772964444E+00  2.19111069043E+00  1.05660000000E-01  0.00000000000E+00  1.
      -13    1    5    5    0    0 -3.50794884495E-01 -1.42320549736E+00 -2.03097012919E+00  2.50690539111E+00  1.05660000000E-01  0.00000000000E+00  1.
</event>
<event>
 9   1   1.0000000E+00   4.7222439E+01   7.8125000E-03   2.4032145E-01
       -5   -1    0    0    0  502  0.00000000000E+00  0.00000000000E+00  1.46110945227E-01  1.46110945227E-01  0.00000000000E+00  0.00000000000E+00  1.
        5   -1    0    0  502    0  0.00000000000E+00  0.00000000000E+00 -8.22461228721E+01  8.22461228721E+01  0.00000000000E+00  0.00000000000E+00  1.
       32    2    1    2    0    0  4.44089209850E-16  5.55111512313E-17 -8.21000119269E+01  8.23922338174E+01  6.93312591955E+00  0.00000000000E+00  1.
       23    2    3    3    0    0  7.73673173438E-01  2.13937869005E-01 -2.55171954701E+01  2.57187873213E+01  3.11197959879E+00  0.00000000000E+00  1.
       23    2    3    3    0    0 -7.73673173438E-01 -2.13937869005E-01 -5.65828164568E+01  5.66734464961E+01  3.10162537652E+00  0.00000000000E+00  1.
       13    1    5    5    0    0 -1.66656591235E+00  2.34377589133E-01 -1.83205069605E+01  1.83979486389E+01  1.05660000000E-01  0.00000000000E+00  1.
      -13    1    4    4    0    0 -1.19154698483E+00  1.39655099855E-01 -7.79385684367E+00  7.88635887461E+00  1.05660000000E-01  0.00000000000E+00  1.
       13    1    4    4    0    0  1.96522015827E+00  7.42827691503E-02 -1.77233386265E+01  1.78324284466E+01  1.05660000000E-01  0.00000000000E+00  1.
      -13    1    5    5    0    0  8.92892738909E-01 -4.48315458138E-01 -3.82623094962E+01  3.82754978572E+01  1.05660000003E-01  0.00000000000E+00  1.
</event>
</LesHouchesEvents>
